5
Energy = -152.4624955351
O    -2.2987814    0.9862964   -0.0895779 
H    -2.7331893    0.7397777    0.7419512 
H    -1.0314976    0.4195789   -0.0159231 
O    -0.0073007    0.0044181    0.0188916 
H    -0.1221675   -0.9553207   -0.0556801 
