29
Energy = -1035.664080777
C    -3.4302465   -3.0693824   -3.4580945 
C    -3.4792410   -4.3522974   -2.8714219 
C    -2.4579357   -4.8096050   -2.0435024 
C    -1.3814610   -3.9465515   -1.8162859 
C    -1.3056379   -2.6503452   -2.4054860 
C    -2.3556032   -2.2159695   -3.2337194 
C    -0.0790292   -2.0488368   -1.9511025 
C     0.5252767   -2.9730225   -1.1209499 
N    -0.2512582   -4.1082803   -1.0410569 
H    -4.2485810   -2.7471951   -4.0960125 
H    -2.3308110   -1.2308156   -3.6924420 
H    -4.3324667   -4.9952327   -3.0682501 
H    -2.4976064   -5.7953810   -1.5890245 
H     1.4604044   -2.9128637   -0.5811436 
H    -0.0102426   -4.9384580   -0.5168715 
C     0.3774719   -0.6510918   -2.2119271 
C    -0.3530011    0.3782480   -1.3092429 
H     0.1678408   -0.3493912   -3.2435501 
H     1.4557886   -0.5529062   -2.0546151 
N    -0.0247520    0.1103345    0.0944032 
H    -1.4343144    0.3145284   -1.4269306 
H    -0.0162240    1.3931255   -1.5222563 
C    -0.6693794   -0.6226775    0.9457055 
C    -0.1293072   -0.9364503    2.2895008 
Cl   -2.2206765   -1.2083475    0.5627929 
H     0.8656863   -0.5061455    2.4169318 
H    -0.0849766   -2.0234817    2.4105486 
H    -0.8113234   -0.5463604    3.0514800 
H     0.8832184    0.4490274    0.4122769 
