8
Energy = -229.2310289858
C    -2.0809234    0.0383288   -1.1557811 
C    -0.5800057    0.0408245   -1.2186644 
O     0.0946131    0.0767078   -2.2351525 
O    -0.0229013   -0.0024806    0.0167565 
H    -2.4940556    0.0703344   -2.1631035 
H    -2.4255175    0.9036973   -0.5809512 
H    -2.4254170   -0.8614868   -0.6366184 
H     0.9499228    0.0024771   -0.0901200 
