3
Energy = -76.47677872328
O     0.9821832   -0.0831399   -0.0574803 
H     1.9521292   -0.1036510   -0.0147214 
H     0.7035976   -0.4853391    0.7813517 
